SPECGRID
  91  50  115   1  F  /

COORD
     7146.230     23326.836    1143.224      7146.230     23326.836    1185.066
     7184.532     23294.696    1143.506      7184.532     23294.696    1185.286
     7222.834     23262.557    1143.869      7222.834     23262.557    1185.583
     7261.137     23230.417    1144.318      7261.137     23230.417    1185.965
     7299.439     23198.278    1144.852      7299.439     23198.278    1186.433
     7337.741     23166.139    1145.470      7337.741     23166.139    1186.985
     7376.043     23134.000    1146.165      7376.043     23134.000    1187.616
     7414.345     23101.860    1146.928      7414.345     23101.860    1188.317
     7452.648     23069.721    1147.746      7452.648     23069.721    1189.077
     7490.950     23037.581    1148.603      7490.950     23037.581    1189.882
     7529.252     23005.442    1149.483      7529.252     23005.442    1190.714
     7567.554     22973.303    1150.366      7567.554     22973.303    1191.555
     7605.857     22941.163    1151.234      7605.857     22941.163    1192.388
     7644.159     22909.024    1152.067      7644.159     22909.024    1193.193
     7682.461     22876.885    1152.847      7682.461     22876.885    1193.954
     7720.763     22844.745    1153.561      7720.763     22844.745    1194.656
     7759.066     22812.606    1154.196      7759.066     22812.606    1195.288
     7797.368     22780.466    1154.745      7797.368     22780.466    1195.842
     7835.670     22748.327    1155.203      7835.670     22748.327    1196.315
     7873.972     22716.188    1155.574      7873.972     22716.188    1196.708
     7912.275     22684.048    1155.862      7912.275     22684.048    1197.027
     7950.577     22651.909    1156.074      7950.577     22651.909    1197.278
     7988.879     22619.770    1156.220      7988.879     22619.770    1197.471
     8027.181     22587.630    1156.310      8027.181     22587.630    1197.615
     8065.483     22555.491    1156.354      8065.483     22555.491    1197.719
     8103.786     22523.352    1156.363      8103.786     22523.352    1197.793
     8142.088     22491.212    1156.347      8142.088     22491.212    1197.847
     8180.390     22459.073    1156.315      8180.390     22459.073    1197.888
     8218.692     22426.933    1156.279      8218.692     22426.933    1197.927
     8256.995     22394.794    1156.249      8256.995     22394.794    1197.971
     8295.297     22362.655    1156.236      8295.297     22362.655    1198.030
     8333.599     22330.515    1156.247      8333.599     22330.515    1198.109
     8371.901     22298.376    1156.286      8371.901     22298.376    1198.207
     8410.204     22266.236    1156.353      8410.204     22266.236    1198.323
     8448.506     22234.097    1156.441      8448.506     22234.097    1198.448
     8486.808     22201.958    1156.543      8486.808     22201.958    1198.569
     8525.110     22169.818    1156.646      8525.110     22169.818    1198.673
     8563.412     22137.679    1156.740      8563.412     22137.679    1198.748
     8601.715     22105.540    1156.816      8601.715     22105.540    1198.785
     8640.017     22073.400    1156.865      8640.017     22073.400    1198.777
     8678.319     22041.261    1156.881      8678.319     22041.261    1198.724
     8716.621     22009.122    1156.867      8716.621     22009.122    1198.631
     8754.924     21976.982    1156.838      8754.924     21976.982    1198.512
     8793.226     21944.843    1156.814      8793.226     21944.843    1198.387
     8831.528     21912.703    1156.810      8831.528     21912.703    1198.272
     8869.830     21880.564    1156.839      8869.830     21880.564    1198.182
     8908.133     21848.425    1156.908      8908.133     21848.425    1198.125
     8946.435     21816.285    1157.018      8946.435     21816.285    1198.110
     8984.737     21784.146    1157.167      8984.737     21784.146    1198.136
     9023.039     21752.007    1157.346      9023.039     21752.007    1198.200
     9061.341     21719.867    1157.539      9061.341     21719.867    1198.290
     9099.644     21687.728    1157.725      9099.644     21687.728    1198.393
     9137.946     21655.588    1157.881      9137.946     21655.588    1198.490
     9176.248     21623.449    1157.983      9176.248     21623.449    1198.565
     9214.550     21591.310    1158.019      9214.550     21591.310    1198.606
     9252.853     21559.170    1157.985      9252.853     21559.170    1198.611
     9291.155     21527.031    1157.893      9291.155     21527.031    1198.588
     9329.457     21494.892    1157.757      9329.457     21494.892    1198.547
     9367.759     21462.752    1157.596      9367.759     21462.752    1198.501
     9406.061     21430.613    1157.427      9406.061     21430.613    1198.463
     9444.364     21398.474    1157.263      9444.364     21398.474    1198.440
     9482.666     21366.334    1157.116      9482.666     21366.334    1198.442
     9520.968     21334.195    1156.996      9520.968     21334.195    1198.472
     9559.270     21302.055    1156.911      9559.270     21302.055    1198.537
     9597.573     21269.916    1156.867      9597.573     21269.916    1198.637
     9635.875     21237.777    1156.869      9635.875     21237.777    1198.776
     9674.177     21205.637    1156.918      9674.177     21205.637    1198.951
     9712.479     21173.498    1157.016      9712.479     21173.498    1199.163
     9750.782     21141.358    1157.163      9750.782     21141.358    1199.408
     9789.084     21109.219    1157.357      9789.084     21109.219    1199.684
     9827.386     21077.080    1157.597      9827.386     21077.080    1199.990
     9865.688     21044.940    1157.882      9865.688     21044.940    1200.322
     9903.991     21012.801    1158.208      9903.991     21012.801    1200.679
     9942.293     20980.662    1158.576      9942.293     20980.662    1201.061
     9980.595     20948.522    1158.982      9980.595     20948.522    1201.467
    10018.897     20916.383    1159.424     10018.897     20916.383    1201.895
    10057.199     20884.244    1159.898     10057.199     20884.244    1202.344
    10095.502     20852.104    1160.399     10095.502     20852.104    1202.811
    10133.804     20819.965    1160.921     10133.804     20819.965    1203.290
    10172.106     20787.825    1161.454     10172.106     20787.825    1203.776
    10210.408     20755.686    1161.989     10210.408     20755.686    1204.261
    10248.711     20723.547    1162.516     10248.711     20723.547    1204.738
    10287.013     20691.407    1163.026     10287.013     20691.407    1205.198
    10325.315     20659.268    1163.512     10325.315     20659.268    1205.637
    10363.617     20627.129    1163.969     10363.617     20627.129    1206.052
    10401.920     20594.989    1164.397     10401.920     20594.989    1206.440
    10440.222     20562.850    1164.798     10440.222     20562.850    1206.806
    10478.524     20530.710    1165.176     10478.524     20530.710    1207.152
    10516.826     20498.571    1165.536     10516.826     20498.571    1207.481
    10555.128     20466.432    1165.882     10555.128     20466.432    1207.800
    10593.431     20434.292    1166.220     10593.431     20434.292    1208.112
    10631.733     20402.153    1166.552     10631.733     20402.153    1208.420
     7178.369     23365.138    1142.688      7178.369     23365.138    1184.516
     7216.672     23332.999    1142.861      7216.672     23332.999    1184.621
     7254.974     23300.859    1143.136      7254.974     23300.859    1184.825
     7293.276     23268.720    1143.516      7293.276     23268.720    1185.134
     7331.578     23236.581    1144.002      7331.578     23236.581    1185.548
     7369.880     23204.441    1144.591      7369.880     23204.441    1186.066
     7408.183     23172.302    1145.275      7408.183     23172.302    1186.681
     7446.485     23140.162    1146.043      7446.485     23140.162    1187.384
     7484.787     23108.023    1146.881      7484.787     23108.023    1188.160
     7523.089     23075.884    1147.771      7523.089     23075.884    1188.993
     7561.392     23043.744    1148.693      7561.392     23043.744    1189.863
     7599.694     23011.605    1149.623      7599.694     23011.605    1190.748
     7637.996     22979.466    1150.541      7637.996     22979.466    1191.627
     7676.298     22947.326    1151.422      7676.298     22947.326    1192.477
     7714.600     22915.187    1152.246      7714.600     22915.187    1193.279
     7752.903     22883.047    1152.994      7752.903     22883.047    1194.014
     7791.205     22850.908    1153.653      7791.205     22850.908    1194.669
     7829.507     22818.769    1154.214      7829.507     22818.769    1195.234
     7867.809     22786.629    1154.673      7867.809     22786.629    1195.708
     7906.112     22754.490    1155.033      7906.112     22754.490    1196.092
     7944.414     22722.351    1155.301      7944.414     22722.351    1196.392
     7982.716     22690.211    1155.486      7982.716     22690.211    1196.619
     8021.018     22658.072    1155.601      8021.018     22658.072    1196.784
     8059.321     22625.932    1155.656      8059.321     22625.932    1196.897
     8097.623     22593.793    1155.663      8097.623     22593.793    1196.969
     8135.925     22561.654    1155.634      8135.925     22561.654    1197.011
     8174.227     22529.514    1155.578      8174.227     22529.514    1197.032
     8212.530     22497.375    1155.508      8212.530     22497.375    1197.042
     8250.832     22465.236    1155.435      8250.832     22465.236    1197.052
     8289.134     22433.096    1155.372      8289.134     22433.096    1197.074
     8327.436     22400.957    1155.334      8327.436     22400.957    1197.118
     8365.738     22368.817    1155.331      8365.738     22368.817    1197.193
     8404.041     22336.678    1155.367      8404.041     22336.678    1197.301
     8442.343     22304.539    1155.443      8442.343     22304.539    1197.438
     8480.645     22272.399    1155.550      8480.645     22272.399    1197.592
     8518.947     22240.260    1155.675      8518.947     22240.260    1197.746
     8557.250     22208.121    1155.802      8557.250     22208.121    1197.882
     8595.552     22175.981    1155.915      8595.552     22175.981    1197.982
     8633.854     22143.842    1156.001      8633.854     22143.842    1198.032
     8672.156     22111.703    1156.054      8672.156     22111.703    1198.027
     8710.458     22079.563    1156.063      8710.458     22079.563    1197.964
     8748.761     22047.424    1156.032      8748.761     22047.424    1197.849
     8787.063     22015.284    1155.982      8787.063     22015.284    1197.704
     8825.365     21983.145    1155.942      8825.365     21983.145    1197.554
     8863.667     21951.006    1155.929      8863.667     21951.006    1197.420
     8901.970     21918.866    1155.959      8901.970     21918.866    1197.319
     8940.272     21886.727    1156.039      8940.272     21886.727    1197.263
     8978.574     21854.587    1156.175      8978.574     21854.587    1197.260
     9016.876     21822.448    1156.365      9016.876     21822.448    1197.312
     9055.179     21790.309    1156.598      9055.179     21790.309    1197.414
     9093.481     21758.169    1156.857      9093.481     21758.169    1197.555
     9131.783     21726.030    1157.117      9131.783     21726.030    1197.716
     9170.085     21693.891    1157.346      9170.085     21693.891    1197.872
     9208.387     21661.751    1157.518      9208.387     21661.751    1198.004
     9246.690     21629.612    1157.596      9246.690     21629.612    1198.084
     9284.992     21597.473    1157.587      9284.992     21597.473    1198.116
     9323.294     21565.333    1157.512      9323.294     21565.333    1198.114
     9361.596     21533.194    1157.389      9361.596     21533.194    1198.093
     9399.899     21501.054    1157.240      9399.899     21501.054    1198.066
     9438.201     21468.915    1157.084      9438.201     21468.915    1198.049
     9476.503     21436.776    1156.936      9476.503     21436.776    1198.049
     9514.805     21404.636    1156.805      9514.805     21404.636    1198.074
     9553.108     21372.497    1156.701      9553.108     21372.497    1198.128
     9591.410     21340.358    1156.630      9591.410     21340.358    1198.214
     9629.712     21308.218    1156.598      9629.712     21308.218    1198.335
     9668.014     21276.079    1156.607      9668.014     21276.079    1198.489
     9706.317     21243.939    1156.661      9706.317     21243.939    1198.676
     9744.619     21211.800    1156.759      9744.619     21211.800    1198.894
     9782.921     21179.661    1156.903      9782.921     21179.661    1199.142
     9821.223     21147.521    1157.091      9821.223     21147.521    1199.417
     9859.526     21115.382    1157.324      9859.526     21115.382    1199.718
     9897.828     21083.243    1157.601      9897.828     21083.243    1200.044
     9936.130     21051.104    1157.923      9936.130     21051.104    1200.395
     9974.432     21018.964    1158.288      9974.432     21018.964    1200.774
    10012.734     20986.824    1158.698     10012.734     20986.824    1201.179
    10051.036     20954.686    1159.149     10051.036     20954.686    1201.612
    10089.339     20922.546    1159.640     10089.339     20922.546    1202.072
    10127.641     20890.406    1160.166     10127.641     20890.406    1202.557
    10165.943     20858.267    1160.718     10165.943     20858.267    1203.061
    10204.245     20826.128    1161.289     10204.245     20826.128    1203.577
    10242.548     20793.988    1161.865     10242.548     20793.988    1204.097
    10280.850     20761.849    1162.436     10280.850     20761.849    1204.611
    10319.152     20729.710    1162.989     10319.152     20729.710    1205.108
    10357.454     20697.570    1163.514     10357.454     20697.570    1205.583
    10395.757     20665.431    1164.007     10395.757     20665.431    1206.029
    10434.059     20633.292    1164.467     10434.059     20633.292    1206.448
    10472.361     20601.152    1164.897     10472.361     20601.152    1206.840
    10510.663     20569.013    1165.302     10510.663     20569.013    1207.213
    10548.965     20536.873    1165.689     10548.965     20536.873    1207.570
    10587.268     20504.734    1166.063     10587.268     20504.734    1207.916
    10625.570     20472.595    1166.428     10625.570     20472.595    1208.256
    10663.872     20440.455    1166.790     10663.872     20440.455    1208.593
     7210.509     23403.440    1141.935      7210.509     23403.440    1183.740
     7248.811     23371.301    1142.025      7248.811     23371.301    1183.757
     7287.113     23339.161    1142.233      7287.113     23339.161    1183.890
     7325.415     23307.022    1142.563      7325.415     23307.022    1184.144
     7363.718     23274.883    1143.017      7363.718     23274.883    1184.521
     7402.020     23242.743    1143.591      7402.020     23242.743    1185.021
     7440.322     23210.604    1144.278      7440.322     23210.604    1185.635
     7478.624     23178.465    1145.065      7478.624     23178.465    1186.353
     7516.927     23146.325    1145.937      7516.927     23146.325    1187.158
     7555.229     23114.186    1146.872      7555.229     23114.186    1188.032
     7593.531     23082.046    1147.847      7593.531     23082.046    1188.951
     7631.833     23049.907    1148.835      7631.833     23049.907    1189.891
     7670.135     23017.768    1149.811      7670.135     23017.768    1190.824
     7708.438     22985.628    1150.747      7708.438     22985.628    1191.727
     7746.740     22953.489    1151.618      7746.740     22953.489    1192.574
     7785.042     22921.350    1152.403      7785.042     22921.350    1193.343
     7823.344     22889.210    1153.085      7823.344     22889.210    1194.019
     7861.647     22857.071    1153.653      7861.647     22857.071    1194.592
     7899.949     22824.932    1154.105      7899.949     22824.932    1195.058
     7938.251     22792.792    1154.445      7938.251     22792.792    1195.422
     7976.553     22760.653    1154.682      7976.553     22760.653    1195.693
     8014.856     22728.513    1154.828      8014.856     22728.513    1195.884
     8053.158     22696.374    1154.898      8053.158     22696.374    1196.007
     8091.460     22664.235    1154.906      8091.460     22664.235    1196.076
     8129.762     22632.095    1154.864      8129.762     22632.095    1196.104
     8168.064     22599.956    1154.783      8168.064     22599.956    1196.101
     8206.367     22567.817    1154.675      8206.367     22567.817    1196.076
     8244.669     22535.677    1154.551      8244.669     22535.677    1196.040
     8282.971     22503.538    1154.426      8282.971     22503.538    1196.006
     8321.273     22471.398    1154.316      8321.273     22471.398    1195.990
     8359.576     22439.259    1154.239      8359.576     22439.259    1196.008
     8397.878     22407.120    1154.211      8397.878     22407.120    1196.071
     8436.180     22374.980    1154.240      8436.180     22374.980    1196.184
     8474.482     22342.841    1154.324      8474.482     22342.841    1196.342
     8512.785     22310.702    1154.452      8512.785     22310.702    1196.530
     8551.087     22278.562    1154.605      8551.087     22278.562    1196.726
     8589.389     22246.423    1154.760      8589.389     22246.423    1196.901
     8627.691     22214.283    1154.896      8627.691     22214.283    1197.030
     8665.993     22182.144    1154.991      8665.993     22182.144    1197.094
     8704.296     22150.005    1155.037      8704.296     22150.005    1197.086
     8742.598     22117.865    1155.031      8742.598     22117.865    1197.006
     8780.900     22085.726    1154.980      8780.900     22085.726    1196.866
     8819.202     22053.587    1154.911      8819.202     22053.587    1196.693
     8857.505     22021.447    1154.852      8857.505     22021.447    1196.516
     8895.807     21989.308    1154.828      8895.807     21989.308    1196.362
     8934.109     21957.168    1154.856      8934.109     21957.168    1196.249
     8972.411     21925.029    1154.947      8972.411     21925.029    1196.193
     9010.714     21892.890    1155.109      9010.714     21892.890    1196.203
     9049.016     21860.750    1155.339      9049.016     21860.750    1196.282
     9087.318     21828.611    1155.631      9087.318     21828.611    1196.428
     9125.620     21796.472    1155.965      9125.620     21796.472    1196.627
     9163.922     21764.332    1156.324      9163.922     21764.332    1196.867
     9202.225     21732.193    1156.654      9202.225     21732.193    1197.107
     9240.527     21700.054    1156.899      9240.527     21700.054    1197.301
     9278.829     21667.914    1157.031      9278.829     21667.914    1197.429
     9317.131     21635.775    1157.048      9317.131     21635.775    1197.489
     9355.433     21603.635    1156.975      9355.433     21603.635    1197.497
     9393.736     21571.496    1156.866      9393.736     21571.496    1197.498
     9432.038     21539.357    1156.736      9432.038     21539.357    1197.496
     9470.340     21507.217    1156.600      9470.340     21507.217    1197.505
     9508.642     21475.078    1156.473      9508.642     21475.078    1197.533
     9546.945     21442.938    1156.364      9546.945     21442.938    1197.586
     9585.247     21410.799    1156.279      9585.247     21410.799    1197.667
     9623.549     21378.660    1156.226      9623.549     21378.660    1197.778
     9661.851     21346.521    1156.208      9661.851     21346.521    1197.920
     9700.154     21314.381    1156.227      9700.154     21314.381    1198.092
     9738.456     21282.242    1156.286      9738.456     21282.242    1198.292
     9776.758     21250.102    1156.386      9776.758     21250.102    1198.519
     9815.060     21217.963    1156.526      9815.060     21217.963    1198.769
     9853.363     21185.824    1156.708      9853.363     21185.824    1199.042
     9891.665     21153.685    1156.933      9891.665     21153.685    1199.336
     9929.967     21121.545    1157.201      9929.967     21121.545    1199.654
     9968.269     21089.405    1157.514      9968.269     21089.405    1199.997
    10006.571     21057.266    1157.875     10006.571     21057.266    1200.368
    10044.874     21025.127    1158.286     10044.874     21025.127    1200.770
    10083.176     20992.987    1158.745     10083.176     20992.987    1201.205
    10121.478     20960.848    1159.253     10121.478     20960.848    1201.675
    10159.780     20928.709    1159.803     10159.780     20928.709    1202.178
    10198.083     20896.569    1160.389     10198.083     20896.569    1202.708
    10236.385     20864.430    1161.001     10236.385     20864.430    1203.257
    10274.687     20832.291    1161.624     10274.687     20832.291    1203.816
    10312.989     20800.151    1162.248     10312.989     20800.151    1204.377
    10351.292     20768.012    1162.853     10351.292     20768.012    1204.921
    10389.594     20735.873    1163.423     10389.594     20735.873    1205.434
    10427.896     20703.733    1163.949     10427.896     20703.733    1205.911
    10466.198     20671.594    1164.434     10466.198     20671.594    1206.353
    10504.501     20639.454    1164.893     10504.501     20639.454    1206.774
    10542.803     20607.315    1165.326     10542.803     20607.315    1207.174
    10581.105     20575.176    1165.740     10581.105     20575.176    1207.558
    10619.407     20543.036    1166.141     10619.407     20543.036    1207.932
    10657.709     20510.897    1166.536     10657.709     20510.897    1208.300
    10696.012     20478.758    1166.927     10696.012     20478.758    1208.668
     7242.648     23441.742    1140.958      7242.648     23441.742    1182.729
     7280.950     23409.603    1140.994      7280.950     23409.603    1182.688
     7319.252     23377.464    1141.158      7319.252     23377.464    1182.774
     7357.555     23345.324    1141.458      7357.555     23345.324    1182.995
     7395.857     23313.185    1141.897      7395.857     23313.185    1183.354
     7434.159     23281.046    1142.472      7434.159     23281.046    1183.851
     7472.461     23248.906    1143.176      7472.461     23248.906    1184.479
     7510.764     23216.767    1143.997      7510.764     23216.767    1185.227
     7549.066     23184.627    1144.916      7549.066     23184.627    1186.076
     7587.368     23152.488    1145.908      7587.368     23152.488    1187.004
     7625.670     23120.349    1146.948      7625.670     23120.349    1187.984
     7663.973     23088.209    1148.005      7663.973     23088.209    1188.988
     7702.275     23056.070    1149.047      7702.275     23056.070    1189.985
     7740.577     23023.931    1150.045      7740.577     23023.931    1190.946
     7778.879     22991.791    1150.968      7778.879     22991.791    1191.842
     7817.181     22959.652    1151.791      7817.181     22959.652    1192.647
     7855.484     22927.512    1152.494      7855.484     22927.512    1193.343
     7893.786     22895.373    1153.064      7893.786     22895.373    1193.916
     7932.088     22863.234    1153.500      7932.088     22863.234    1194.366
     7970.390     22831.094    1153.807      7970.390     22831.094    1194.699
     8008.693     22798.955    1153.999      8008.693     22798.955    1194.926
     8046.995     22766.816    1154.092      8046.995     22766.816    1195.065
     8085.297     22734.676    1154.104      8085.297     22734.676    1195.133
     8123.599     22702.537    1154.050      8123.599     22702.537    1195.145
     8161.902     22670.397    1153.945      8161.902     22670.397    1195.114
     8200.204     22638.258    1153.801      8200.204     22638.258    1195.052
     8238.506     22606.119    1153.627      8238.506     22606.119    1194.967
     8276.808     22573.979    1153.434      8276.808     22573.979    1194.870
     8315.110     22541.840    1153.238      8315.110     22541.840    1194.775
     8353.413     22509.701    1153.062      8353.413     22509.701    1194.702
     8391.715     22477.561    1152.931      8391.715     22477.561    1194.676
     8430.017     22445.422    1152.867      8430.017     22445.422    1194.715
     8468.319     22413.282    1152.881      8468.319     22413.282    1194.828
     8506.622     22381.143    1152.973      8506.622     22381.143    1195.010
     8544.924     22349.004    1153.128      8544.924     22349.004    1195.240
     8583.226     22316.865    1153.318      8583.226     22316.865    1195.488
     8621.528     22284.725    1153.511      8621.528     22284.725    1195.714
     8659.831     22252.586    1153.672      8659.831     22252.586    1195.880
     8698.133     22220.446    1153.777      8698.133     22220.446    1195.961
     8736.435     22188.307    1153.814      8736.435     22188.307    1195.946
     8774.737     22156.167    1153.785      8774.737     22156.167    1195.842
     8813.039     22124.028    1153.708      8813.039     22124.028    1195.672
     8851.342     22091.889    1153.614      8851.342     22091.889    1195.467
     8889.644     22059.750    1153.534      8889.644     22059.750    1195.261
     8927.946     22027.610    1153.496      8927.946     22027.610    1195.084
     8966.248     21995.471    1153.520      8966.248     21995.471    1194.959
     9004.551     21963.331    1153.620      9004.551     21963.331    1194.903
     9042.853     21931.192    1153.804      9042.853     21931.192    1194.926
     9081.155     21899.053    1154.074      9081.155     21899.053    1195.033
     9119.457     21866.913    1154.423      9119.457     21866.913    1195.224
     9157.760     21834.774    1154.843      9157.760     21834.774    1195.492
     9196.062     21802.635    1155.306      9196.062     21802.635    1195.819
     9234.364     21770.495    1155.747      9234.364     21770.495    1196.151
     9272.666     21738.356    1156.093      9272.666     21738.356    1196.433
     9310.969     21706.216    1156.280      9310.969     21706.216    1196.610
     9349.271     21674.077    1156.322      9349.271     21674.077    1196.697
     9387.573     21641.938    1156.269      9387.573     21641.938    1196.730
     9425.875     21609.798    1156.169      9425.875     21609.798    1196.748
     9464.177     21577.659    1156.068      9464.177     21577.659    1196.779
     9502.480     21545.520    1155.963      9502.480     21545.520    1196.823
     9540.782     21513.380    1155.865      9540.782     21513.380    1196.885
     9579.084     21481.241    1155.784      9579.084     21481.241    1196.971
     9617.386     21449.101    1155.725      9617.386     21449.101    1197.083
     9655.689     21416.962    1155.693      9655.689     21416.962    1197.222
     9693.991     21384.823    1155.691      9693.991     21384.823    1197.388
     9732.293     21352.683    1155.723      9732.293     21352.683    1197.579
     9770.595     21320.544    1155.788      9770.595     21320.544    1197.793
     9808.897     21288.405    1155.890      9808.897     21288.405    1198.028
     9847.200     21256.265    1156.027      9847.200     21256.265    1198.281
     9885.502     21224.126    1156.202      9885.502     21224.126    1198.551
     9923.804     21191.986    1156.415      9923.804     21191.986    1198.837
     9962.106     21159.847    1156.670      9962.106     21159.847    1199.142
    10000.409     21127.708    1156.971     10000.409     21127.708    1199.471
    10038.711     21095.568    1157.324     10038.711     21095.568    1199.829
    10077.013     21063.429    1157.732     10077.013     21063.429    1200.224
    10115.315     21031.290    1158.197     10115.315     21031.290    1200.659
    10153.617     20999.150    1158.719     10153.617     20999.150    1201.137
    10191.920     20967.011    1159.296     10191.920     20967.011    1201.657
    10230.222     20934.872    1159.917     10230.222     20934.872    1202.215
    10268.524     20902.732    1160.573     10268.524     20902.732    1202.801
    10306.826     20870.593    1161.255     10306.826     20870.593    1203.411
    10345.129     20838.453    1161.939     10345.129     20838.453    1204.023
    10383.431     20806.314    1162.599     10383.431     20806.314    1204.616
    10421.733     20774.175    1163.216     10421.733     20774.175    1205.173
    10460.035     20742.035    1163.782     10460.035     20742.035    1205.686
    10498.338     20709.896    1164.299     10498.338     20709.896    1206.158
    10536.640     20677.756    1164.777     10536.640     20677.756    1206.598
    10574.942     20645.617    1165.238     10574.942     20645.617    1207.026
    10613.244     20613.478    1165.681     10613.244     20613.478    1207.438
    10651.546     20581.338    1166.111     10651.546     20581.338    1207.841
    10689.849     20549.199    1166.534     10689.849     20549.199    1208.239
    10728.151     20517.060    1166.957     10728.151     20517.060    1208.638
     7274.787     23480.045    1139.765      7274.787     23480.045    1181.489
     7313.090     23447.905    1139.775      7313.090     23447.905    1181.422
     7351.392     23415.766    1139.920      7351.392     23415.766    1181.487
     7389.694     23383.626    1140.209      7389.694     23383.626    1181.696
     7427.996     23351.487    1140.649      7427.996     23351.487    1182.054
     7466.299     23319.348    1141.240      7466.299     23319.348    1182.565