SPECGRID
  46  25  115   1  F  /

COORD
     7146.230     23326.836    1143.224      7146.230     23326.836    1185.066
     7222.834     23262.557    1143.869      7222.834     23262.557    1185.583
     7299.439     23198.278    1144.852      7299.439     23198.278    1186.433
     7376.043     23134.000    1146.165      7376.043     23134.000    1187.616
     7452.648     23069.721    1147.746      7452.648     23069.721    1189.077
     7529.252     23005.442    1149.483      7529.252     23005.442    1190.714
     7605.857     22941.163    1151.234      7605.857     22941.163    1192.388
     7682.461     22876.885    1152.847      7682.461     22876.885    1193.954
     7759.066     22812.606    1154.196      7759.066     22812.606    1195.288
     7835.670     22748.327    1155.203      7835.670     22748.327    1196.315
     7912.275     22684.048    1155.862      7912.275     22684.048    1197.027
     7988.879     22619.770    1156.220      7988.879     22619.770    1197.471
     8065.483     22555.491    1156.354      8065.483     22555.491    1197.719
     8142.088     22491.212    1156.347      8142.088     22491.212    1197.847
     8218.692     22426.933    1156.279      8218.692     22426.933    1197.927
     8295.297     22362.655    1156.236      8295.297     22362.655    1198.030
     8371.901     22298.376    1156.286      8371.901     22298.376    1198.207
     8448.506     22234.097    1156.441      8448.506     22234.097    1198.448
     8525.110     22169.818    1156.646      8525.110     22169.818    1198.673
     8601.715     22105.540    1156.816      8601.715     22105.540    1198.785
     8678.319     22041.261    1156.881      8678.319     22041.261    1198.724
     8754.924     21976.982    1156.838      8754.924     21976.982    1198.512
     8831.528     21912.703    1156.810      8831.528     21912.703    1198.272
     8908.133     21848.425    1156.908      8908.133     21848.425    1198.125
     8984.737     21784.146    1157.167      8984.737     21784.146    1198.136
     9061.341     21719.867    1157.539      9061.341     21719.867    1198.290
     9137.946     21655.588    1157.881      9137.946     21655.588    1198.490
     9214.550     21591.310    1158.019      9214.550     21591.310    1198.606
     9291.155     21527.031    1157.893      9291.155     21527.031    1198.588
     9367.759     21462.752    1157.596      9367.759     21462.752    1198.501
     9444.364     21398.474    1157.263      9444.364     21398.474    1198.440
     9520.968     21334.195    1156.996      9520.968     21334.195    1198.472
     9597.573     21269.916    1156.867      9597.573     21269.916    1198.637
     9674.177     21205.637    1156.918      9674.177     21205.637    1198.951
     9750.782     21141.358    1157.163      9750.782     21141.358    1199.408
     9827.386     21077.080    1157.597      9827.386     21077.080    1199.990
     9903.991     21012.801    1158.208      9903.991     21012.801    1200.679
     9980.595     20948.522    1158.982      9980.595     20948.522    1201.467
    10057.199     20884.244    1159.898     10057.199     20884.244    1202.344
    10133.804     20819.965    1160.921     10133.804     20819.965    1203.290
    10210.408     20755.686    1161.989     10210.408     20755.686    1204.261
    10287.013     20691.407    1163.026     10287.013     20691.407    1205.198
    10363.617     20627.129    1163.969     10363.617     20627.129    1206.052
    10440.222     20562.850    1164.798     10440.222     20562.850    1206.806
    10516.826     20498.571    1165.536     10516.826     20498.571    1207.481
    10593.431     20434.292    1166.220     10593.431     20434.292    1208.112
    10670.035     20370.014    1166.882     10670.035     20370.014    1208.726
     7210.509     23403.440    1141.935      7210.509     23403.440    1183.740
     7287.113     23339.161    1142.233      7287.113     23339.161    1183.890
     7363.718     23274.883    1143.017      7363.718     23274.883    1184.521
     7440.322     23210.604    1144.278      7440.322     23210.604    1185.635
     7516.927     23146.325    1145.937      7516.927     23146.325    1187.158
     7593.531     23082.046    1147.847      7593.531     23082.046    1188.951
     7670.135     23017.768    1149.811      7670.135     23017.768    1190.824
     7746.740     22953.489    1151.618      7746.740     22953.489    1192.574
     7823.344     22889.210    1153.085      7823.344     22889.210    1194.019
     7899.949     22824.932    1154.105      7899.949     22824.932    1195.058
     7976.553     22760.653    1154.682      7976.553     22760.653    1195.693
     8053.158     22696.374    1154.898      8053.158     22696.374    1196.007
     8129.762     22632.095    1154.864      8129.762     22632.095    1196.104
     8206.367     22567.817    1154.675      8206.367     22567.817    1196.076
     8282.971     22503.538    1154.426      8282.971     22503.538    1196.006
     8359.576     22439.259    1154.239      8359.576     22439.259    1196.008
     8436.180     22374.980    1154.240      8436.180     22374.980    1196.184
     8512.785     22310.702    1154.452      8512.785     22310.702    1196.530
     8589.389     22246.423    1154.760      8589.389     22246.423    1196.901
     8665.993     22182.144    1154.991      8665.993     22182.144    1197.094
     8742.598     22117.865    1155.031      8742.598     22117.865    1197.006
     8819.202     22053.587    1154.911      8819.202     22053.587    1196.693
     8895.807     21989.308    1154.828      8895.807     21989.308    1196.362
     8972.411     21925.029    1154.947      8972.411     21925.029    1196.193
     9049.016     21860.750    1155.339      9049.016     21860.750    1196.282
     9125.620     21796.472    1155.965      9125.620     21796.472    1196.627
     9202.225     21732.193    1156.654      9202.225     21732.193    1197.107
     9278.829     21667.914    1157.031      9278.829     21667.914    1197.429
     9355.433     21603.635    1156.975      9355.433     21603.635    1197.497
     9432.038     21539.357    1156.736      9432.038     21539.357    1197.496
     9508.642     21475.078    1156.473      9508.642     21475.078    1197.533
     9585.247     21410.799    1156.279      9585.247     21410.799    1197.667
     9661.851     21346.521    1156.208      9661.851     21346.521    1197.920
     9738.456     21282.242    1156.286      9738.456     21282.242    1198.292
     9815.060     21217.963    1156.526      9815.060     21217.963    1198.769
     9891.665     21153.685    1156.933      9891.665     21153.685    1199.336
     9968.269     21089.405    1157.514      9968.269     21089.405    1199.997
    10044.874     21025.127    1158.286     10044.874     21025.127    1200.770
    10121.478     20960.848    1159.253     10121.478     20960.848    1201.675
    10198.083     20896.569    1160.389     10198.083     20896.569    1202.708
    10274.687     20832.291    1161.624     10274.687     20832.291    1203.816
    10351.292     20768.012    1162.853     10351.292     20768.012    1204.921
    10427.896     20703.733    1163.949     10427.896     20703.733    1205.911
    10504.501     20639.454    1164.893     10504.501     20639.454    1206.774
    10581.105     20575.176    1165.740     10581.105     20575.176    1207.558
    10657.709     20510.897    1166.536     10657.709     20510.897    1208.300
    10734.314     20446.618    1167.319     10734.314     20446.618    1209.036
     7274.787     23480.045    1139.765      7274.787     23480.045    1181.489
     7351.392     23415.766    1139.920      7351.392     23415.766    1181.487
     7427.996     23351.487    1140.649      7427.996     23351.487    1182.054
     7504.601     23287.208    1141.976      7504.601     23287.208    1183.222
     7581.205     23222.930    1143.824      7581.205     23222.930    1184.921
     7657.810     23158.651    1146.004      7657.810     23158.651    1186.968
     7734.414     23094.372    1148.255      7734.414     23094.372    1189.114
     7811.019     23030.094    1150.299      7811.019     23030.094    1191.087
     7887.623     22965.815    1151.882      7887.623     22965.815    1192.641
     7964.228     22901.536    1152.856      7964.228     22901.536    1193.632
     8040.832     22837.257    1153.249      8040.832     22837.257    1194.087
     8117.436     22772.979    1153.211      8117.436     22772.979    1194.156
     8194.041     22708.700    1152.900      8194.041     22708.700    1193.991
     8270.645     22644.421    1152.424      8270.645     22644.421    1193.697
     8347.250     22580.142    1151.859      8347.250     22580.142    1193.341
     8423.854     22515.864    1151.388      8423.854     22515.864    1193.099
     8500.459     22451.585    1151.266      8500.459     22451.585    1193.206
     8577.063     22387.306    1151.555      8577.063     22387.306    1193.694
     8653.668     22323.027    1152.040      8653.668     22323.027    1194.302
     8730.272     22258.749    1152.358      8730.272     22258.749    1194.623
     8806.877     22194.470    1152.326      8806.877     22194.470    1194.467
     8883.481     22130.191    1152.086      8883.481     22130.191    1194.013
     8960.086     22065.912    1151.926      8960.086     22065.912    1193.578
     9036.690     22001.634    1152.051      9036.690     22001.634    1193.388
     9113.294     21937.355    1152.559      9113.294     21937.355    1193.558
     9189.899     21873.076    1153.460      9189.899     21873.076    1194.127
     9266.503     21808.797    1154.572      9266.503     21808.797    1194.963
     9343.108     21744.519    1155.287      9343.108     21744.519    1195.582
     9419.712     21680.240    1155.345      9419.712     21680.240    1195.775
     9496.317     21615.961    1155.225      9496.317     21615.961    1195.907
     9572.921     21551.682    1155.109      9572.921     21551.682    1196.101
     9649.526     21487.404    1155.035      9649.526     21487.404    1196.372
     9726.130     21423.125    1155.045      9726.130     21423.125    1196.732
     9802.735     21358.846    1155.163      9802.735     21358.846    1197.173
     9879.339     21294.568    1155.399      9879.339     21294.568    1197.672
     9955.944     21230.289    1155.761      9955.944     21230.289    1198.205
    10032.548     21166.010    1156.282     10032.548     21166.010    1198.801
    10109.152     21101.731    1157.021     10109.152     21101.731    1199.527
    10185.757     21037.453    1158.025     10185.757     21037.453    1200.441
    10262.361     20973.174    1159.286     10262.361     20973.174    1201.565
    10338.966     20908.895    1160.735     10338.966     20908.895    1202.857
    10415.570     20844.616    1162.205     10415.570     20844.616    1204.174
    10492.175     20780.337    1163.482     10492.175     20780.337    1205.331
    10568.779     20716.059    1164.543     10568.779     20716.059    1206.307
    10645.384     20651.780    1165.502     10645.384     20651.780    1207.203
    10721.988     20587.501    1166.419     10721.988     20587.501    1208.066
    10798.593     20523.223    1167.332     10798.593     20523.223    1208.933
     7339.066     23556.649    1136.828      7339.066     23556.649    1178.437
     7415.671     23492.370    1137.039      7415.671     23492.370    1178.494
     7492.275     23428.092    1137.842      7492.275     23428.092    1179.133
     7568.880     23363.813    1139.343      7568.880     23363.813    1180.469
     7645.484     23299.534    1141.488      7645.484     23299.534    1182.452
     7722.089     23235.255    1144.026      7722.089     23235.255    1184.843
     7798.693     23170.977    1146.615      7798.693     23170.977    1187.309
     7875.297     23106.698    1148.916      7875.297     23106.698    1189.525
     7951.902     23042.419    1150.606      7951.902     23042.419    1191.176
     8028.506     22978.140    1151.450      8028.506     22978.140    1192.031
     8105.111     22913.862    1151.531      8105.111     22913.862    1192.178
     8181.715     22849.583    1151.110      8181.715     22849.583    1191.871
     8258.320     22785.304    1150.394      8258.320     22785.304    1191.312
     8334.924     22721.025    1149.517      8334.924     22721.025    1190.631
     8411.529     22656.747    1148.467      8411.529     22656.747    1189.810
     8488.133     22592.468    1147.509      8488.133     22592.468    1189.110
     8564.738     22528.189    1147.163      8564.738     22528.189    1189.039
     8641.342     22463.911    1147.556      8641.342     22463.911    1189.701
     8717.947     22399.632    1148.386      8717.947     22399.632    1190.740
     8794.551     22335.353    1148.903      8794.551     22335.353    1191.309
     8871.155     22271.074    1148.710      8871.155     22271.074    1190.990
     8947.760     22206.795    1148.299      8947.760     22206.795    1190.359
     9024.364     22142.517    1148.075      9024.364     22142.517    1189.864
     9100.969     22078.238    1148.224      9100.969     22078.238    1189.708
     9177.573     22013.959    1148.812      9177.573     22013.959    1189.961
     9254.178     21949.681    1149.868      9254.178     21949.681    1190.677
     9330.782     21885.402    1151.250      9330.782     21885.402    1191.766
     9407.387     21821.123    1152.328      9407.387     21821.123    1192.717
     9483.991     21756.844    1152.803      9483.991     21756.844    1193.274
     9560.595     21692.565    1153.028      9560.595     21692.565    1193.710
     9637.200     21628.287    1153.163      9637.200     21628.287    1194.133
     9713.804     21564.008    1153.255      9713.804     21564.008    1194.566
     9790.409     21499.729    1153.360      9790.409     21499.729    1195.036
     9867.013     21435.451    1153.517      9867.013     21435.451    1195.546
     9943.618     21371.172    1153.735      9943.618     21371.172    1196.041
    10020.222     21306.893    1154.016     10020.222     21306.893    1196.456
    10096.827     21242.614    1154.420     10096.827     21242.614    1196.939
    10173.431     21178.335    1155.074     10173.431     21178.335    1197.612
    10250.036     21114.057    1156.089     10250.036     21114.057    1198.506
    10326.640     21049.778    1157.482     10326.640     21049.778    1199.731
    10403.245     20985.500    1159.164     10403.245     20985.500    1201.227
    10479.849     20921.221    1160.908     10479.849     20921.221    1202.797
    10556.454     20856.942    1162.417     10556.454     20856.942    1204.172
    10633.058     20792.663    1163.658     10633.058     20792.663    1205.322
    10709.662     20728.384    1164.765     10709.662     20728.384    1206.363
    10786.267     20664.106    1165.825     10786.267     20664.106    1207.371
    10862.871     20599.827    1166.888     10862.871     20599.827    1208.445
     7403.345     23633.254    1133.479      7403.345     23633.254    1174.950
     7479.949     23568.975    1133.895      7479.949     23568.975    1175.226
     7556.554     23504.696    1134.843      7556.554     23504.696    1176.018
     7633.158     23440.417    1136.581      7633.158     23440.417    1177.590
     7709.763     23376.139    1139.120      7709.763     23376.139    1179.957
     7786.367     23311.860    1142.070      7786.367     23311.860    1182.742
     7862.972     23247.581    1144.969      7862.972     23247.581    1185.499
     7939.576     23183.302    1147.462      7939.576     23183.302    1187.886
     8016.181     23119.024    1149.232      8016.181     23119.024    1189.604
     8092.785     23054.745    1149.826      8092.785     23054.745    1190.206
     8169.389     22990.466    1149.497      8169.389     22990.466    1189.944
     8245.994     22926.188    1148.605      8245.994     22926.188    1189.172
     8322.598     22861.909    1147.341      8322.598     22861.909    1188.072
     8399.203     22797.630    1145.833      8399.203     22797.630    1186.764
     8475.807     22733.351    1144.103      8475.807     22733.351    1185.263
     8552.412     22669.073    1142.526      8552.412     22669.073    1183.947
     8629.016     22604.794    1141.808      8629.016     22604.794    1183.523
     8705.621     22540.515    1142.247      8705.621     22540.515    1184.281
     8782.225     22476.236    1143.555      8782.225     22476.236    1185.884
     8858.830     22411.958    1144.426      8858.830     22411.958    1186.867
     8935.434     22347.679    1143.995      8935.434     22347.679    1186.309
     9012.039     22283.400    1143.455      9012.039     22283.400    1185.574
     9088.643     22219.121    1143.355      9088.643     22219.121    1185.264
     9165.247     22154.843    1143.677      9165.247     22154.843    1185.341
     9241.852     22090.564    1144.371      9241.852     22090.564    1185.748
     9318.456     22026.285    1145.488      9318.456     22026.285    1186.554
     9395.061     21962.006    1147.039      9395.061     21962.006    1187.825
     9471.665     21897.728    1148.531      9471.665     21897.728    1189.151
     9548.270     21833.449    1149.596      9548.270     21833.449    1190.208
     9624.874     21769.170    1150.311      9624.874     21769.170    1191.045
     9701.479     21704.891    1150.754      9701.479     21704.891    1191.718
     9778.083     21640.613    1151.009      9778.083     21640.613    1192.285
     9854.688     21576.334    1151.171      9854.688     21576.334    1192.815
     9931.292     21512.055    1151.324      9931.292     21512.055    1193.352
    10007.897     21447.776    1151.489     10007.897     21447.776    1193.794
    10084.501     21383.498    1151.631     10084.501     21383.498    1194.083
    10161.106     21319.219    1151.829     10161.106     21319.219    1194.363
    10237.710     21254.940    1152.327     10237.710     21254.940    1194.888
    10314.314     21190.662    1153.335     10314.314     21190.662    1195.744
    10390.919     21126.383    1154.883     10390.919     21126.383    1197.098
    10467.523     21062.104    1156.829     10467.523     21062.104    1198.839
    10544.128     20997.825    1158.894     10544.128     20997.825    1200.717
    10620.732     20933.546    1160.719     10620.732     20933.546    1202.398
    10697.337     20869.268    1162.200     10697.337     20869.268    1203.782
    10773.941     20804.989    1163.505     10773.941     20804.989    1205.023
    10850.545     20740.710    1164.743     10850.545     20740.710    1206.270
    10927.150     20676.432    1165.984     10927.150     20676.432    1207.525
     7467.624     23709.858    1130.237      7467.624     23709.858    1171.570
     7544.228     23645.579    1130.983      7544.228     23645.579    1172.200
     7620.833     23581.301    1132.092      7620.833     23581.301    1173.168
     7697.437     23517.022    1134.069      7697.437     23517.022    1174.980
     7774.041     23452.743    1137.096      7774.041     23452.743    1177.826
     7850.646     23388.464    1140.430      7850.646     23388.464    1180.976
     7927.250     23324.186    1143.485      7927.250     23324.186    1183.861
     8003.855     23259.907    1145.928      8003.855     23259.907    1186.175
     8080.459     23195.628    1147.486      8080.459     23195.628    1187.663
     8157.064     23131.349    1147.846      8157.064     23131.349    1188.025
     8233.668     23067.071    1147.193      8233.668     23067.071    1187.446
     8310.273     23002.792    1145.851      8310.273     23002.792    1186.234
     8386.877     22938.513    1143.984      8386.877     22938.513    1184.535
     8463.482     22874.234    1141.696      8463.482     22874.234    1182.438
     8540.086     22809.956    1139.141      8540.086     22809.956    1180.091
     8616.690     22745.677    1136.792      8616.690     22745.677    1177.970
     8693.295     22681.398    1135.409      8693.295     22681.398    1176.848
     8769.899     22617.120    1135.604      8769.899     22617.120    1177.344
     8846.504     22552.841    1136.923      8846.504     22552.841    1178.960
     8923.108     22488.562    1137.927      8923.108     22488.562    1180.107
     8999.713     22424.283    1137.708      8999.713     22424.283    1179.838
     9076.317     22360.004    1137.596      9076.317     22360.004    1179.648
     9152.922     22295.726    1138.051      9152.922     22295.726    1180.031
     9229.526     22231.447    1138.874      9229.526     22231.447    1180.731
     9306.131     22167.168    1139.869      9306.131     22167.168    1181.520
     9382.735     22102.890    1141.075      9382.735     22102.890    1182.450
     9459.340     22038.611    1142.889      9459.340     22038.611    1183.979
     9535.944     21974.332    1144.744      9535.944     21974.332    1185.614
     9612.548     21910.053    1146.281      9612.548     21910.053    1187.045
     9689.153     21845.774    1147.410      9689.153     21845.774    1188.196
     9765.757     21781.496    1148.118      9765.757     21781.496    1189.049
     9842.362     21717.217    1148.442      9842.362     21717.217    1189.630
     9918.966     21652.938    1148.513      9918.966     21652.938    1190.053
     9995.571     21588.660    1148.527      9995.571     21588.660    1190.482
    10072.175     21524.381    1148.609     10072.175     21524.381    1190.916
    10148.780     21460.102    1148.557     10148.780     21460.102    1191.033
    10225.384     21395.823    1148.395     10225.384     21395.823    1190.941
    10301.989     21331.544    1148.669     10301.989     21331.544    1191.205
    10378.593     21267.266    1149.690     10378.593     21267.266    1192.054
    10455.198     21202.987    1151.455     10455.198     21202.987    1193.616
    10531.802     21138.708    1153.769     10531.802     21138.708    1195.717
    10608.406     21074.430    1156.291     10608.406     21074.430    1198.045
    10685.011     21010.151    1158.501     10685.011     21010.151    1200.108
    10761.615     20945.872    1160.225     10761.615     20945.872    1201.767
    10838.220     20881.593    1161.743     10838.220     20881.593    1203.270
    10914.824     20817.315    1163.206     10914.824     20817.315    1204.730
    10991.429     20753.036    1164.663     10991.429     20753.036    1206.194
     7531.902     23786.462    1127.650      7531.902     23786.462    1168.868
     7608.507     23722.184    1128.927      7608.507     23722.184    1170.059
     7685.111     23657.905    1130.371      7685.111     23657.905    1171.383
     7761.716     23593.626    1132.590      7761.716     23593.626    1173.444
     7838.320     23529.347    1136.043      7838.320     23529.347    1176.707
     7914.925     23465.069    1139.511      7914.925     23465.069    1179.966
     7991.529     23400.790    1142.429      7991.529     23400.790    1182.680
     8068.134     23336.511    1144.541      8068.134     23336.511    1184.629
     8144.738     23272.232    1145.682      8144.738     23272.232    1185.679
     8221.343     23207.954    1145.757      8221.343     23207.954    1185.754
     8297.947     23143.675    1144.857      8297.947     23143.675    1184.942
     8374.551     23079.396    1143.166      8374.551     23079.396    1183.401
     8451.156     23015.118    1140.812      8451.156     23015.118    1181.224
     8527.760     22950.839    1137.881      8527.760     22950.839    1178.470
     8604.365     22886.560    1134.549      8604.365     22886.560    1175.305
     8680.969     22822.281    1131.160      8680.969     22822.281    1172.074
     8757.574     22758.002    1128.759      8757.574     22758.002    1169.849
     8834.178     22693.724    1128.387      8834.178     22693.724    1169.690
     8910.783     22629.445    1129.266      8910.783     22629.445    1170.779
     8987.387     22565.167    1129.953      8987.387     22565.167    1171.600
     9063.992     22500.888    1130.371      9063.992     22500.888    1172.104
     9140.596     22436.609    1131.232      9140.596     22436.609    1173.093
     9217.200     22372.330    1132.719      9217.200     22372.330    1174.724
     9293.805     22308.051    1134.431      9293.805     22308.051    1176.490
     9370.409     22243.773    1136.022      9370.409     22243.773    1177.972
     9447.014     22179.494    1137.580      9447.014     22179.494    1179.276
     9523.618     22115.215    1139.429      9523.618     22115.215    1180.809
     9600.223     22050.937    1141.406      9600.223     22050.937    1182.492
     9676.827     21986.658    1143.224      9676.827     21986.658    1184.105
     9753.432     21922.379    1144.673      9753.432     21922.379    1185.465
     9830.036     21858.100    1145.557      9830.036     21858.100    1186.389
     9906.641     21793.821    1145.770      9906.641     21793.821    1186.775
     9983.245     21729.543    1145.452      9983.245     21729.543    1186.762
    10059.850     21665.264    1145.021     10059.850     21665.264    1186.758
    10136.454     21600.985    1144.852     10136.454     21600.985    1187.067
    10213.059     21536.707    1144.574     10213.059     21536.707    1187.027
    10289.663     21472.428    1144.041     10289.663     21472.428    1186.562
    10366.267     21408.149    1144.275     10366.267     21408.149    1186.689
    10442.872     21343.870    1145.362     10442.872     21343.870    1187.619
    10519.476     21279.592    1147.272     10519.476     21279.592    1189.343
    10596.081     21215.312    1150.011     10596.081     21215.312    1191.888
    10672.685     21151.034    1153.001     10672.685     21151.034    1194.695
    10749.290     21086.755    1155.644     10749.290     21086.755    1197.215
    10825.894     21022.477    1157.716     10825.894     21022.477    1199.256
    10902.499     20958.198    1159.556     10902.499     20958.198    1201.077
    10979.103     20893.919    1161.312     10979.103     20893.919    1202.825
    11055.708     20829.641    1163.027     11055.708     20829.641    1204.544
     7596.181     23863.067    1126.094      7596.181     23863.067    1167.243
     7672.786     23798.788    1128.130      7672.786     23798.788    1169.229
     7749.390     23734.509    1130.314      7749.390     23734.509    1171.320
     7825.995     23670.231    1133.053      7825.995     23670.231    1173.913
     7902.599     23605.952    1136.382      7902.599     23605.952    1177.044
     7979.203     23541.673    1139.539      7979.203     23541.673    1179.965
     8055.808     23477.395    1141.981      8055.808     23477.395    1182.161
     8132.412     23413.116    1143.541      8132.412     23413.116    1183.512
     8209.017     23348.837    1144.184      8209.017     23348.837    1184.035
     8285.621     23284.558    1143.914      8285.621     23284.558    1183.767
     8362.226     23220.280    1142.787      8362.226     23220.280    1182.758
     8438.830     23156.001    1140.891      8438.830     23156.001    1181.049
     8515.435     23091.722    1138.286      8515.435     23091.722    1178.643
     8592.039     23027.443    1135.032      8592.039     23027.443    1175.557
     8668.643     22963.165    1131.275      8668.643     22963.165    1171.919
     8745.248     22898.886    1127.226      8745.248     22898.886    1167.942
     8821.852     22834.607    1123.880      8821.852     22834.607    1164.665
     8898.457     22770.328    1122.866      8898.457     22770.328    1163.753
     8975.061     22706.050    1122.886      8975.061     22706.050    1163.881
     9051.666     22641.771    1122.949      9051.666     22641.771    1164.038
     9128.270     22577.492    1123.415      9128.270     22577.492    1164.667
     9204.875     22513.213    1125.263      9204.875     22513.213    1166.873
     9281.479     22448.935    1128.108      9281.479     22448.935    1170.138
     9358.084     22384.656    1130.930      9358.084     22384.656    1173.223
     9434.688     22320.377    1133.117      9434.688     22320.377    1175.381
     9511.293     22256.098    1134.865      9511.293     22256.098    1176.861
     9587.897     22191.820    1136.635      9587.897     22191.820    1178.253
     9664.502     22127.541    1138.599      9664.502     22127.541    1179.840
     9741.106     22063.262    1140.618      9741.106     22063.262    1181.551
     9817.710     21998.983    1142.360      9817.710     21998.983    1183.092
     9894.315     21934.705    1143.385      9894.315     21934.705    1184.039
     9970.919     21870.426    1143.308      9970.919     21870.426    1184.023
    10047.524     21806.147    1142.190     10047.524     21806.147    1183.114
    10124.128     21741.868    1140.729     10124.128     21741.868    1182.017
    10200.733     21677.590    1139.682     10200.733     21677.590    1181.438
    10277.337     21613.311    1139.069     10277.337     21613.311    1181.173
    10353.942     21549.032    1139.059     10353.942     21549.032    1181.259
    10430.546     21484.753    1139.708     10430.546     21484.753    1181.873
    10507.151     21420.475    1140.813     10507.151     21420.475    1182.888
    10583.755     21356.196    1142.698     10583.755     21356.196    1184.641
    10660.360     21291.917    1145.821     10660.360     21291.917    1187.614
    10736.964     21227.639    1149.194     10736.964     21227.639    1190.839
    10813.569     21163.360    1152.267     10813.569     21163.360    1193.792
    10890.173     21099.081    1154.863     10890.173     21099.081    1196.359
    10966.777     21034.802    1157.146     10966.777     21034.802    1198.633